ITEM: TIMESTEP
0
ITEM: NUMBER OF ATOMS
63
ITEM: BOX BOUNDS pp pp pp
0.0000000000000000e+00 5.2000000000000002e+00
0.0000000000000000e+00 5.2000000000000002e+00
0.0000000000000000e+00 5.2000000000000002e+00
ITEM: ATOMS id x y z vx vy vz
1 0 0 0 -1.79021 -0.595487 0.154227
2 1.18563 1.18563 0 0.31454 -0.55136 -1.16105
3 1.18563 0 1.18563 -0.101998 1.10314 1.00453
4 0 1.18563 1.18563 -0.545317 1.26958 -1.14464
11 0 2.37126 0 -1.42006 0.504951 0.399999
12 1.18563 2.37126 1.18563 -0.086927 -0.432393 -0.828158
16 0 0 2.37126 0.818302 -0.592008 1.19873
17 1.18563 1.18563 2.37126 0.819166 -0.420566 0.545064
21 0 2.37126 2.37126 -1.62349 -1.56509 -1.25678
5 2.37126 0 0 -0.679104 -0.486581 0.077287
8 2.37126 1.18563 1.18563 1.3239 1.46607 -0.749116
13 2.37126 2.37126 0 -0.61905 0.297228 1.42593
18 2.37126 0 2.37126 0.999405 -0.371645 0.846984
22 2.37126 2.37126 2.37126 -1.10737 1.38228 1.53143
6 3.55689 1.18563 0 -0.724512 0.826227 -1.56522
7 3.55689 0 1.18563 1.20341 0.671637 -1.21393
9 4.74252 0 0 -0.1335 -0.76091 1.45922
10 4.74252 1.18563 1.18563 0.144732 -1.15318 -1.79879
14 3.55689 2.37126 1.18563 0.5546 -0.0391316 1.12132
15 4.74252 2.37126 0 -0.97718 0.187592 0.00754799
19 3.55689 1.18563 2.37126 0.336608 0.659612 1.2637
20 4.74252 0 2.37126 1.71452 -1.39693 0.332212
23 4.74252 2.37126 2.37126 0.583523 1.5291 -0.1272
24 1.18563 0 3.55689 0.856461 -1.70204 1.17845
25 0 1.18563 3.55689 0.976077 -1.23149 -0.773849
29 1.18563 2.37126 3.55689 0.658989 -0.667067 -0.541376
31 0 0 4.74252 -0.599083 -1.50052 -0.0105171
32 1.18563 1.18563 4.74252 -1.31408 1.54277 -0.191183
36 0 2.37126 4.74252 0.781295 -1.64108 -0.655179
27 2.37126 1.18563 3.55689 0.417337 0.792315 -0.843122
33 2.37126 0 4.74252 -1.3569 -0.237548 0.646367
37 2.37126 2.37126 4.74252 -0.554041 1.80716 0.145449
26 3.55689 0 3.55689 0.522555 -0.256595 -0.0439414
28 4.74252 1.18563 3.55689 -0.880095 -1.15791 1.33326
30 3.55689 2.37126 3.55689 -0.878421 1.84226 1.33745
34 3.55689 1.18563 4.74252 -1.23796 -0.388531 0.596123
35 4.74252 0 4.74252 1.33968 1.08387 0.0865593
38 4.74252 2.37126 4.74252 -0.057204 0.231667 1.41517
39 1.18563 3.55689 0 -0.898618 -0.218562 0.303614
40 0 3.55689 1.18563 -1.33282 -1.19946 -0.749447
44 0 4.74252 0 -1.16097 1.39479 0.0269333
45 1.18563 4.74252 1.18563 0.0161007 1.1922 1.23848
49 1.18563 3.55689 2.37126 1.19944 -1.41277 -0.340555
51 0 4.74252 2.37126 0.507649 0.465366 -0.907242
42 2.37126 3.55689 1.18563 -1.27749 -0.762794 -1.48908
46 2.37126 4.74252 0 1.35809 1.85242 -0.1355
52 2.37126 4.74252 2.37126 1.78993 -1.03652 -0.791013
41 3.55689 3.55689 0 1.47527 0.949648 -1.73386
43 4.74252 3.55689 1.18563 -0.430307 -0.294968 1.06194
47 3.55689 4.74252 1.18563 1.33875 -0.0916487 1.3926
48 4.74252 4.74252 0 0.198205 0.28774 -0.113299
50 3.55689 3.55689 2.37126 0.538809 0.143466 1.33538
53 4.74252 4.74252 2.37126 -0.831757 0.112145 -1.06505
54 0 3.55689 3.55689 -1.6802 -0.0103154 0.901717
57 1.18563 4.74252 3.55689 -0.0861278 -1.35727 -0.722124
59 1.18563 3.55689 4.74252 0.760075 0.617685 0.0627772
61 0 4.74252 4.74252 -0.0130041 0.149703 -1.52049
55 2.37126 3.55689 3.55689 1.41511 -1.61076 -0.823099
62 2.37126 4.74252 4.74252 -0.653655 0.126226 -1.29424
56 4.74252 3.55689 3.55689 -1.73043 -0.776393 -0.333332
58 3.55689 4.74252 3.55689 1.28354 1.58081 0.390867
60 3.55689 3.55689 4.74252 -0.53037 1.25706 0.14353
63 4.74252 4.74252 4.74252 1.06618 -1.4072 -0.0424479
