ITEM: TIMESTEP
0
ITEM: NUMBER OF ATOMS
63
ITEM: BOX BOUNDS pp pp pp
0 5.2
0 5.2
0 5.2
ITEM: ATOMS id x y z vx vy vz
1 0.0124421 0.0125618 0.0126367 124.421 125.616 126.366
2 1.18566 1.18557 0.0123119 0.314479 -0.551421 123.121
3 1.18562 0.0125384 1.18573 -0.102059 125.385 1.00447
4 0.0123739 1.18576 1.18552 123.737 1.26952 -1.1447
11 0.0123801 2.37131 0.0125623 123.802 0.504951 125.622
12 1.18562 2.37122 1.18555 -0.0869761 -0.432393 -0.828207
16 0.0126042 0.0124631 2.37138 126.04 124.63 1.19873
17 1.18571 1.18559 2.37131 0.819117 -0.420615 0.545064
21 0.0122657 2.3711 2.37113 122.659 -1.56509 -1.25678
5 2.37119 0.0124736 0.0125299 -0.679104 124.735 125.299
8 2.37139 1.18578 1.18555 1.3239 1.46602 -0.749165
13 2.3712 2.37129 0.0125709 -0.61905 0.297228 125.708
18 2.37136 0.0123911 2.37134 0.999405 123.911 0.846984
22 2.37115 2.3714 2.37141 -1.10737 1.38228 1.53143
6 3.55682 1.18571 0.0122719 -0.724451 0.826166 122.717
7 3.55701 0.0124955 1.18551 1.20347 124.954 -1.21399
9 4.72989 0.0125451 0.0127673 -126.345 125.451 127.671
10 4.73011 1.18551 1.18545 -124.138 -1.15324 -1.79885
14 3.55694 2.37126 1.18574 0.554649 -0.0391316 1.12127
15 4.7299 2.37128 0.0125232 -126.199 0.187592 125.23
19 3.55692 1.1857 2.37139 0.336657 0.659563 1.2637
20 4.73017 0.0123825 2.37129 -123.507 123.825 0.332212
23 4.73015 2.37141 2.37125 -123.699 1.5291 -0.1272
24 1.18572 0.0122581 3.55701 0.8564 122.58 1.17851
25 0.012526 1.18551 3.55681 125.258 -1.23155 -0.773788
29 1.1857 2.37119 3.55684 0.65894 -0.667067 -0.541327
31 0.0125613 0.0124712 4.7299 125.613 124.711 -126.222
32 1.1855 1.18578 4.73007 -1.31414 1.54271 -124.473
36 0.0126004 2.3711 4.72993 126.003 -1.64108 -125.877
27 2.3713 1.18571 3.55681 0.417337 0.792266 -0.843073
33 2.37112 0.0124984 4.73006 -1.3569 124.984 -124.576
37 2.3712 2.37144 4.73011 -0.554041 1.80716 -124.137
26 3.55694 0.0124025 3.55688 0.522616 124.026 -0.04388
28 4.73 1.18551 3.55702 -125.162 -1.15797 1.33332
30 3.5568 2.37144 3.55702 -0.878372 1.84226 1.3375
34 3.55677 1.18559 4.73015 -1.2379 -0.388592 -123.686
35 4.73003 0.0127296 4.72991 -124.872 127.296 -126.125
38 4.72999 2.37128 4.73014 -125.279 0.231667 -123.807
39 1.18554 3.55687 0.0124588 -0.898679 -0.218501 124.586
40 0.0122948 3.55677 1.18555 122.949 -1.1994 -0.749508
44 0.0125051 4.73004 0.0126238 125.051 -124.817 126.239
45 1.18563 4.73021 1.18575 0.0160393 -123.09 1.23842
49 1.18575 3.55675 2.37123 1.19939 -1.41272 -0.340555
51 0.0125728 4.73004 2.37117 125.73 -124.757 -0.907242
42 2.37113 3.55681 1.18548 -1.27749 -0.762745 -1.48913
46 2.3714 4.73018 0.0125089 1.35809 -123.37 125.086
52 2.37144 4.72999 2.37118 1.78993 -125.319 -0.791013
41 3.55704 3.55698 0.0122547 1.47533 0.949709 122.548
43 4.73005 3.55686 1.18574 -124.713 -0.294907 1.06188
47 3.55702 4.73008 1.18577 1.33881 -124.374 1.39254
48 4.72992 4.72993 0.01261 -126.013 -125.924 126.098
50 3.55694 3.5569 2.37139 0.538858 0.143515 1.33538
53 4.72991 4.73001 2.37115 -126.054 -125.11 -1.06505
54 0.0122604 3.55689 3.55698 122.602 -0.010254 0.901778
57 1.18562 4.72996 3.55682 -0.0861892 -125.64 -0.722063
59 1.18571 3.55695 4.7301 0.760014 0.617746 -124.219
61 0.01262 4.72991 4.72975 126.199 -126.062 -127.732
55 2.3714 3.55673 3.55681 1.41511 -1.61071 -0.82305
62 2.37119 4.73001 4.72987 -0.653655 -125.096 -126.516
56 4.72992 3.55681 3.55686 -126.013 -0.776332 -0.333271
58 3.55702 4.73025 3.55693 1.2836 -122.701 0.390928
60 3.55684 3.55702 4.73011 -0.530309 1.25712 -124.139
63 4.73001 4.72976 4.72989 -125.145 -127.619 -126.254
ITEM: TIMESTEP
100
ITEM: NUMBER OF ATOMS
63
ITEM: BOX BOUNDS pp pp pp
0 5.2
0 5.2
0 5.2
ITEM: ATOMS id x y z vx vy vz
1 0.833829 0.795549 0.856997 -5.07502 -11.9805 -2.09209
2 1.88796 1.83371 0.766229 -180.413 -194.213 -65.7218
3 1.57577 0.894908 1.89864 -310.647 -12.074 -173.4
4 1.00262 1.93976 1.60466 50.8183 -141.786 -292.57
11 0.854974 2.39492 0.906567 -4.17634 3.55994 3.3498
12 1.72227 2.35922 1.6357 -152.489 5.68811 -190.091
16 0.894905 0.879146 2.3973 0.990479 -0.690391 3.45634
17 1.62824 1.58216 2.42859 -207.352 -216.756 24.3086
21 1.08776 2.33936 2.35869 -242.16 -19.5265 -12.7332
5 2.32805 0.870124 0.909051 -6.65888 -2.67943 3.74548
8 2.35901 1.62044 1.61821 -15.1236 -194.146 -209.131
13 2.41796 2.3413 1.09955 0.195228 -11.8626 -228.17
18 2.41459 1.05853 2.41926 16.0381 -251.064 32.5353
22 2.40658 2.42095 2.45302 9.72278 21.4282 42.1308
6 2.98827 1.74217 0.990803 233.146 -245.986 38.0911
7 2.85695 1.02479 1.7432 182.224 49.0264 -254.223
9 3.90461 0.816307 0.735895 4.78091 -7.60587 -20.947
10 3.83035 1.73585 1.7688 -9.85873 -235.93 -223.077
14 3.19033 2.39075 1.52661 242.34 -7.98817 -249.13
15 3.82985 2.37683 0.863995 -4.12195 0.795678 -3.42932
19 3.15245 1.68701 2.31115 205.445 -174.697 -38.535
20 3.85516 0.885456 2.35872 -0.531738 -0.146385 -2.32113
23 3.71152 2.34931 2.3948 265.45 -13.1157 -4.32092
24 1.92751 1.00779 3.00204 -151.122 46.9027 237.801
25 0.799104 1.62012 2.84059 -53.0514 -290.801 165.652
29 1.60235 2.33502 3.1498 -214.441 -15.8589 212.927
31 0.815946 0.845937 3.94486 -8.61855 -3.0706 11.4448
32 1.7931 1.74162 3.87703 -212.475 -241.216 23.8731
36 0.892935 2.33428 3.8532 0.85885 -4.94536 -0.391656
27 2.32709 1.60759 3.13369 -20.2521 -215.734 202.215
33 2.32539 0.899313 3.85494 -6.64275 1.74152 -0.0521429
37 2.32786 2.35791 3.67807 -10.7167 2.24347 252.727
26 3.10947 0.688188 2.93676 279.879 -102.905 195.122
28 3.94399 1.75496 3.00805 50.5203 -223.671 244.231
30 3.08616 2.40175 3.14005 174.117 20.6503 200.628
34 2.97742 1.82467 3.78964 240.169 -208.512 -23.6568
35 3.86785 0.820602 3.95186 -1.42781 -7.72689 11.9141
38 3.86834 2.34691 3.85054 1.85605 -4.21063 -1.59504
39 1.66767 2.92954 0.844552 -270.171 211.385 -22.4396
40 0.777725 3.19096 1.99244 -60.9647 323.256 -114.877
44 0.823518 3.93909 0.832454 -7.24897 10.2892 -6.09613
45 1.71803 3.70144 1.6652 -245.433 -54.4485 -261.436
49 1.57815 3.08624 2.33983 -216.209 184.407 -20.592
51 0.902336 3.84921 2.35062 2.03183 -0.3769 -2.64967
42 2.43528 3.09087 1.63866 36.9153 185.463 -194.146
46 2.4345 3.88768 0.911222 9.46009 4.51092 4.38203
52 2.33804 3.71383 2.36554 -13.0135 266.212 5.22677
41 3.04106 2.90856 1.00634 249.592 215.637 39.8969
43 3.91887 3.00021 1.77168 41.7785 223.063 -219.509
47 2.86065 3.81121 1.7981 188.305 -7.63526 -212.526
48 3.98879 3.94601 0.880194 18.3729 11.3739 2.0387
50 3.10785 3.19656 2.31595 189.416 234.25 -15.4117
53 3.85534 3.86445 2.31691 -0.546606 0.907793 -8.22116
54 1.02335 2.71195 3.01447 54.4746 115.621 254.385
57 1.84193 3.71874 3.00225 -200.425 -50.8196 250.767
59 1.68685 2.99028 3.75949 -251.891 229.308 -37.392
61 0.846456 3.9886 3.94867 -3.41865 18.3484 12.2471
55 2.26664 3.10277 3.12093 -40.4577 182.062 193.3
62 2.32728 3.86437 3.82466 -6.80726 1.59646 -4.33682
56 3.66454 3.06911 2.89676 -78.3476 260.194 199.642
58 2.9775 4.10184 2.91744 235.839 129.331 205.278
60 2.93051 2.94249 3.90692 211.48 217.276 36.1978
63 3.97802 3.85818 3.91052 16.0734 -2.34808 5.70792
ITEM: TIMESTEP
200
ITEM: NUMBER OF ATOMS
63
ITEM: BOX BOUNDS pp pp pp
0 5.2
0 5.2
0 5.2
ITEM: ATOMS id x y z vx vy vz
1 0.914234 0.400331 0.634997 14.5328 -180.116 82.5626
2 1.29187 4.13738 4.26293 -8.52544 -325.364 -200.583
3 3.58283 0.947684 0.603488 -313.438 52.5256 -84.2721
4 0.258763 1.54538 4.99032 -101.034 -81.0317 -31.1979
11 4.66688 2.54366 0.414947 -195.614 18.6182 -69.7064
12 1.54659 2.33613 0.253518 39.4737 -6.11806 -117.126
16 4.26276 4.82026 1.96396 -253.668 -93.5061 -81.1675
17 1.29596 0.921997 3.04398 9.62131 -29.1123 70.9184
21 1.42175 1.87632 1.72047 241.998 -66.6139 -102.579
5 1.46082 0.315955 0.576324 -226.577 111.741 153.422
8 2.25007 1.45211 0.860567 -9.67515 30.4756 -40.2489
13 3.20784 1.76864 0.948873 148.074 -98.4741 171.341
18 3.52399 0.16111 3.60738 61.6507 -97.3234 197.036
22 2.50372 2.63515 2.87423 9.71423 21.4201 42.1296
6 5.15862 1.59459 3.10198 192.321 36.1258 -395.222
7 3.28228 5.09683 1.08407 4.80304 -137.43 -8.70857
9 4.06725 0.168502 0.328176 24.7561 -100.727 -55.2616
10 5.10992 4.31296 1.24937 163.888 -269.578 -2.86009
14 3.60873 2.29831 1.23348 8.86275 -8.44328 8.31538
15 3.72968 2.26501 5.13623 -295.288 -27.599 72.0376
19 4.39499 1.40529 1.42649 98.8054 18.8759 -105.046
20 4.6507 4.61896 2.85591 101.797 -193.944 74.198
23 3.61056 2.48498 2.85935 -218.696 33.8745 85.203
24 1.12638 1.09453 4.0166 -55.5248 -5.37622 61.1736
25 0.804262 3.70932 3.64892 216.4 -336.205 2.96166
29 1.31512 1.70661 3.73598 13.9786 -66.4617 19.8709
31 1.34067 3.6363 0.130946 329.831 -423.496 298.359
32 0.831828 1.09196 0.34032 -27.9662 100.112 90.9706
36 1.14328 2.58392 4.25931 7.45905 -92.7887 -0.222734
27 2.22958 1.11053 3.45097 -8.58934 -10.1872 -10.6109
33 2.06179 0.171131 4.9315 -132.821 121.98 75.1235
37 1.56019 2.87671 4.02874 154.539 221.714 -264.529
26 0.183517 5.14109 3.95423 157.648 -6.54008 -38.4524
28 5.07528 1.31066 4.40115 33.5604 137.791 79.6841
30 3.33583 3.05757 4.21459 -22.3467 80.2015 78.4546
34 3.90514 0.585707 3.4285 160.218 44.0295 -57.7728
35 3.35276 4.95805 5.05939 -205.82 -125.383 104.998
38 0.195507 1.92035 4.68389 167.312 67.5151 -1.69212
39 4.18254 2.92381 4.30485 -196.057 -120.263 -142.84
40 0.0511174 1.09623 0.608618 -76.3787 309.255 -140.748
44 0.174122 4.67709 0.134733 -88.3093 99.586 -97.1939
45 0.57889 3.88932 1.90457 -39.4464 -12.0281 129.65
49 0.335588 3.21743 1.84648 -102.816 -43.4563 -54.688
51 0.112401 0.48048 2.8766 -99.6741 232.627 67.1432
42 3.06604 3.36829 0.785974 71.8808 -22.6386 -50.7117
46 2.58611 4.21053 0.391277 65.3462 -143.808 7.16508
52 1.28281 4.61352 1.70403 -51.2934 -126.249 64.6749
41 4.65244 3.05639 5.03134 140.524 -56.6962 -167.899
43 1.19208 5.08703 1.16044 156.786 332.566 -219.873
47 3.53533 5.16482 0.477216 7.29546 175.382 -103.979
48 3.99158 5.06792 5.07737 39.6314 133.082 -106.985
50 3.04695 4.40462 2.0864 -53.5112 93.8262 -24.8349
53 0.703211 4.73926 2.37746 280.943 43.2027 26.1072
54 1.2887 3.13412 4.93248 19.0281 25.0047 181.621
57 1.23272 4.73017 3.81571 -20.3006 124.529 29.0776
59 3.59093 3.76686 0.316925 -140.061 -38.615 291.284
61 0.917188 0.00896263 4.19553 17.0738 176.902 34.6546
55 1.42028 3.44056 4.03277 -99.663 0.563855 58.5973
62 2.35383 0.00121784 3.79428 -328.551 354.509 -351.968
56 3.02745 0.715685 4.5055 -1.7858 341.82 110.764
58 4.55714 4.7526 0.0777588 107.605 -71.1608 271.632
60 3.32636 4.04988 4.60852 135.942 -235.303 118.882
63 5.12167 4.5306 3.6265 -29.8723 112.185 -31.0309
ITEM: TIMESTEP
300
ITEM: NUMBER OF ATOMS
63
ITEM: BOX BOUNDS pp pp pp
0 5.2
0 5.2
0 5.2
ITEM: ATOMS id x y z vx vy vz
1 4.14885 4.34443 1.12759 -185.682 -86.7229 26.4359
2 0.785591 4.49228 2.45075 -53.6153 67.7681 -180.029
3 0.782462 1.55623 4.67779 -214.785 89.3406 -163.425
4 4.78603 0.0603914 0.150284 -38.2763 -44.3675 -29.1761
11 2.81956 1.58919 5.09125 -14.664 -88.7958 -204.282
12 3.42578 3.51584 3.53182 323.662 233.942 -264.224
16 1.70697 4.60189 1.52915 -251.908 12.1768 -33.4605
17 3.97769 1.71571 4.34192 -317.451 105.994 144.99
21 3.50706 0.76292 0.703106 186.254 -141.579 -102.437
5 1.42031 2.15067 5.00779 -25.9311 8.65932 -46.1613
8 2.502 1.44291 0.470289 -51.3564 -162.73 141.956
13 5.08047 0.619063 2.37867 270.279 -131.39 87.279
18 3.84299 4.10416 0.264504 20.5393 -136.583 179.31
22 1.22707 3.19828 2.95038 -185.65 71.2822 -7.50792
6 0.7984 2.62051 0.214438 -203.547 165.229 -245.063
7 3.31398 3.83689 0.762889 3.34487 -118.155 -50.0257
9 4.92298 4.54655 0.740586 64.2856 -182.163 110.044
10 1.24179 1.81098 1.98145 38.1399 -198.544 309.698
14 3.73214 2.29663 1.33204 12.6647 0.833416 9.93629
15 2.76601 3.0195 4.97777 309.311 217.984 -243.557
19 4.72375 1.55627 0.608068 -135.984 5.66582 -20.8667
20 0.330159 2.87718 3.52811 16.1272 -61.6805 38.8524
23 2.01348 2.99535 3.43678 -176.2 86.7998 14.8323
24 5.07604 1.91967 4.59593 -195.056 109.022 64.8447
25 2.13825 0.744905 2.36721 37.1357 -185.583 -239.227
29 1.79198 0.446072 3.1596 51.8205 -198.777 -125.415
31 4.32093 5.16099 3.55217 -95.0654 -415.763 258.903
32 0.482204 1.57329 5.13178 40.676 1.21387 -198.333
36 1.5371 1.13885 4.35591 72.4352 -106.149 39.8696
27 2.61731 0.64775 3.74202 151.159 -136.154 119.437
33 0.445576 1.14166 0.633201 -207.014 43.726 126.704
37 3.50257 4.66576 1.17241 194.957 178.219 -285.14
26 0.674343 5.08313 3.40737 -3.68484 -6.72564 -63.1414
28 0.072989 2.72568 4.92725 5.91511 155.511 42.9711
30 3.22598 4.19873 4.62587 60.9812 261.513 -84.9738
34 0.34621 1.0645 2.82317 163.624 46.7392 -60.2339
35 1.24388 3.68059 0.858354 -211.048 -119.307 93.5783
38 0.978304 3.68168 4.22266 47.3836 186.193 -32.6122
39 3.02332 1.18556 3.48964 -40.604 -224.433 -24.0983
40 4.73315 4.29054 4.36265 -4.20303 331.542 -169.23
44 4.52627 0.464715 4.32243 -85.035 96.9756 -105.125
45 0.375787 3.82676 3.49632 68.9168 16.3293 298.041
49 4.4823 2.74526 1.31506 -106.176 -48.0207 -52.3017
51 4.33237 2.83127 3.54504 -97.0857 236.743 66.6651
42 2.7077 1.94289 0.777017 -72.8346 -114.603 78.7224
46 3.28738 3.05216 1.1583 82.6137 -57.2923 232.09
52 0.781987 3.33512 2.32334 -49.6814 -128.002 60.8641
41 0.856453 2.27222 3.35429 196.715 -194.308 -145.307
43 1.91171 0.945558 1.72307 -103.996 199.103 -49.8651
47 3.13552 1.62795 4.66826 58.1756 128.825 -249.283
48 4.57452 1.20317 3.46907 109.17 260.055 -34.32
50 2.65127 0.529463 2.35443 132.971 81.3423 147.276
53 3.42664 5.10627 2.97927 260.036 22.214 115.206
54 1.3581 3.21044 1.27896 6.29576 -1.17386 159.097
57 2.13038 0.710497 4.2114 141.063 115.856 50.2123
59 3.55969 3.24332 2.36947 41.0128 -138.32 159.116
61 1.19086 0.581033 4.88642 32.0449 -4.13463 84.1096
55 0.33565 2.18058 5.1462 -235.02 -36.327 64.6689
62 1.65633 1.62001 0.637826 -59.5835 -28.6246 -92.2231
56 2.68354 3.53923 5.0898 -133.204 132.036 18.1507
58 5.11171 3.39865 2.88576 -56.8114 -200.791 169.055
60 4.72843 2.75925 0.368126 116.681 -55.5765 90.4239
63 5.11917 0.400351 3.34497 294.763 83.9403 -2.29274
ITEM: TIMESTEP
400
ITEM: NUMBER OF ATOMS
63
ITEM: BOX BOUNDS pp pp pp
0 5.2
0 5.2
0 5.2
ITEM: ATOMS id x y z vx vy vz
1 2.31293 3.47363 1.47904 -161.592 -150.09 -102.7
2 1.10741 1.03779 0.283254 60.5733 342.319 -307.768
3 0.472336 1.38335 2.11511 58.785 -125.351 -227.744
4 0.795841 5.03894 4.83489 260.108 -46.3015 -39.4487
11 3.34664 2.32014 5.05788 90.3257 136.323 57.7326
12 0.0113945 4.99921 2.37938 81.8356 -4.1829 38.3432
16 5.02082 4.47683 0.0383239 -154.11 -26.7449 -213.828
17 3.37872 2.23984 1.2459 -15.7724 -48.5955 151.998
21 0.0969505 1.68093 5.03106 133.801 193.468 -15.3563
5 1.16161 2.23874 4.54427 -25.77 9.0253 -46.3982
8 1.90618 4.83858 1.79244 -61.9398 -176.528 131.977
13 2.65508 4.65378 2.99681 255.882 -65.6211 24.1728
18 4.32645 2.76847 1.89647 53.6655 -130.044 160.177
22 4.69871 4.02647 3.18057 -171.486 85.9596 29.1047
6 0.750742 3.64499 4.06454 9.12995 51.6489 31.0192
7 2.79261 3.43167 0.310631 -120.432 123.524 -40.9692
9 0.286523 3.28452 1.83547 85.0285 -69.5862 93.6941
10 3.9266 4.75535 2.80755 402.024 -223.704 -153.613
14 3.37441 1.95899 1.66003 -100.626 -32.0438 93.3651
15 2.48166 1.86639 3.24012 -193.474 -250.97 -128.531
19 3.06689 1.21271 0.550723 -201.054 -83.9595 11.5904
20 0.559471 2.25752 3.9518 25.8022 -61.5885 43.5752
23 0.354671 4.04114 2.90046 -143.782 146.344 -213.611
24 3.05523 3.01653 5.11728 -199.412 108.738 42.3783
25 2.13403 4.13354 5.15366 -0.255757 -187.563 -240.336
29 2.29938 3.68081 1.95449 27.1787 -131.266 21.1204
31 2.53822 4.86866 1.73538 -301.162 194.626 363.679
32 0.302531 1.40859 4.51394 23.7025 -33.8766 -123.479
36 2.18876 0.098392 4.76915 48.1645 -107.172 56.8367
27 2.58678 0.236206 4.3417 -38.1883 -25.3655 51.012
33 3.61284 1.52809 1.92223 -154.864 -35.0055 163.56
37 3.87511 3.82024 3.74547 -53.712 -198.636 -242.706
26 0.532309 4.85526 2.98448 -22.1672 -31.1657 -29.072
28 0.724201 3.35732 0.135597 242.474 -43.1039 66.736
30 0.348998 0.215567 4.71119 29.1004 -87.0943 202.396
34 1.70337 1.52353 2.1395 124.327 45.7314 -71.8387
35 4.39079 2.02341 1.71574 -196.118 -226.089 86.2256
38 1.69297 0.415165 3.94598 76.9726 195.141 -27.1277
39 2.68915 3.97306 3.19961 -5.89141 -345.379 -3.35077
40 4.94549 2.56245 2.8403 21.4842 361.012 -138.077
44 4.29525 1.67779 4.30693 155.992 89.811 257.125
45 0.82503 3.93361 1.23009 39.6443 9.6456 292.905
49 3.97763 2.71666 0.614472 2.84806 55.3368 -37.3469
51 4.68639 0.571695 2.19842 2.88528 375.945 -195.699
42 2.06137 1.02763 1.67536 -63.7074 -89.5521 90.2919
46 4.10267 2.5046 3.48061 81.4888 -52.4561 230.223
52 0.1772 2.00805 2.60637 -52.9031 -109.688 14.7095
41 2.89136 1.24973 2.21562 206.397 -68.2549 -103.074
43 0.887908 2.96747 1.2095 -86.794 216.256 -47.9412
47 1.68047 2.66857 1.08821 -171.993 100.825 -367.373
48 4.87318 3.52194 1.85898 -67.2629 227.017 -231.516
50 3.79247 0.963625 2.82525 9.15838 -7.45361 -132.312
53 0.714777 5.17253 4.02422 239.668 -13.6839 89.2544
54 1.46299 3.11899 2.95698 10.7861 -9.52106 168.285
57 2.43913 1.01507 3.71517 -28.0771 107.292 -17.2423
59 3.93217 1.90738 3.92276 -36.3522 -51.564 76.2693
61 1.65537 0.481299 0.49201 191.108 -61.527 45.0484
55 3.51549 2.11511 0.494737 -164.636 -3.36405 10.3053
62 1.05876 1.33414 4.91713 -59.6265 -27.9028 -93.058
56 1.22836 0.0648661 0.183385 -150.053 166.712 24.7172
58 4.06389 2.72831 0.118276 -129.992 20.5822 267.877
60 0.674273 2.19596 1.28085 100.386 -72.1456 85.9989
63 0.688502 0.4975 4.45174 182.481 150.856 17.8167
ITEM: TIMESTEP
500
ITEM: NUMBER OF ATOMS
63
ITEM: BOX BOUNDS pp pp pp
0 5.2
0 5.2
0 5.2
ITEM: ATOMS id x y z vx vy vz
1 0.685482 1.72984 5.08046 -159.58 -173.873 -161.18
2 3.46265 2.66445 4.29356 304.322 66.1881 -136.407
3 1.05085 0.129862 5.03104 59.3652 -110.122 -242.565
4 2.97209 4.27667 4.39448 -40.9425 107.781 -54.2545
11 2.63851 2.91439 5.16747 -101.287 54.8098 25.186
12 0.433801 0.807649 2.6348 -5.98412 166.435 27.4449
16 3.33794 3.71433 4.46489 21.5604 -323.509 81.59
17 3.28102 2.65079 1.44697 -9.19053 43.9127 16.9762
21 5.08489 3.50931 0.225209 24.0138 70.6054 133.144
5 1.20922 1.85907 2.96238 -146.542 76.1289 -173.4
8 1.53214 2.96216 2.88441 10.186 -184.018 95.8798
13 3.25073 4.22193 2.09591 -68.4408 -29.4317 -165.282
18 4.85804 1.48879 3.50229 52.6778 -123.706 161.639
22 0.0568767 5.01329 3.26379 223.235 129.903 -86.3526
6 0.929218 4.24335 4.58464 84.515 122.327 199.448
7 2.10196 4.77246 0.626538 1.60804 82.3089 82.704
9 1.82759 1.98378 2.77398 140.833 -209.294 41.7675
10 3.57331 0.0352716 1.59189 75.6739 103.531 203.191
14 1.50324 1.34211 2.93569 -104.496 -288.276 9.26372
15 0.377486 4.60034 2.46504 -205.728 -263.235 -22.9745
19 1.02789 0.837357 0.617127 -220.029 127.426 -8.56543
20 0.316784 1.69153 4.21809 -56.3336 -52.5768 19.0008
23 2.05681 0.0663271 0.164459 282.176 -29.7081 -281.156
24 1.26866 3.61494 5.18655 -176.14 53.6206 3.06705
25 2.20804 2.24957 2.80026 121.411 -130.271 -159.196
29 2.63773 2.65281 2.69023 101 -48.4983 25.0722
31 0.0439138 1.7417 0.143062 -48.1103 219.074 98.0253
32 4.24469 0.857157 2.93484 -214.521 -75.3513 -118.874
36 3.86569 4.76351 0.475776 326.846 -46.8023 -9.73691
27 3.17946 0.445654 4.72272 173.166 72.3856 71.8308
33 4.24014 2.00301 4.4008 82.5055 69.5272 259.59
37 2.90335 1.49325 1.87382 -113.343 -187.822 -261.774
26 0.58399 4.36628 3.16715 11.5572 -50.9421 33.9981
28 0.662388 4.97121 0.19763 -221.186 150.952 -4.634
30 0.00226116 0.334435 1.77713 -71.2453 212.145 232.043
34 2.92328 2.01818 1.42335 119.321 51.6006 -76.8065
35 2.19141 0.420963 1.62934 -237.537 -119.517 -60.9306
38 1.66809 1.81507 3.68406 -93.4411 85.6976 -39.5092
39 3.42045 1.01686 3.01144 166.373 -300.488 94.2296
40 1.25751 3.20768 2.03065 168.322 -13.9656 -60.3108
44 0.758109 2.52011 1.78602 166.472 84.061 268.02
45 0.473849 3.82677 4.13561 -147.265 -86.2395 159.531
49 4.15408 3.94777 2.51449 80.6046 200.063 78.7989
51 4.72816 4.34008 0.277306 6.79498 391.402 -159.455
42 1.77418 0.0322313 1.96723 7.76271 -107.087 -33.1474
46 4.8875 2.20414 0.552515 3.15558 232.242 215.024
52 4.93419 0.925281 2.64465 -0.787487 -96.8325 -47.4328
41 2.64837 4.22578 1.12232 -188.098 -285.037 -99.6038
43 0.231234 3.94549 0.705019 -29.1507 -102.559 -55.4108
47 1.01613 2.93095 4.84765 -96.0044 22.79 124.124
48 4.17733 0.602272 4.74339 -69.6294 228.042 -231.55
50 4.36546 5.11912 2.29471 84.0539 -153.791 -7.44559
53 2.23487 4.98571 4.14203 31.5047 -54.32 -46.6063
54 1.85682 3.29535 4.11083 141.605 98.433 -37.911
57 2.46468 2.02203 4.32686 18.345 77.6049 183.278
59 3.44083 1.39788 4.59627 -41.7378 -55.9835 65.9072
61 3.31879 0.298789 0.558074 13.8841 202.699 -236.592
55 1.86318 2.03307 0.661167 -165.441 -8.69062 17.074
62 1.11314 1.70952 2.23804 -35.2262 -31.4917 -284.607
56 4.87185 1.56535 0.590251 -283.81 -128.245 320.671
58 4.562 3.97774 4.95529 -96.6343 244.818 -131.028
60 1.68629 1.46908 2.13383 117.57 -80.0568 75.1115
63 2.9588 1.72753 4.71204 225.441 103.227 72.0686
ITEM: TIMESTEP
600
ITEM: NUMBER OF ATOMS
63
ITEM: BOX BOUNDS pp pp pp
0 5.2
0 5.2
0 5.2
ITEM: ATOMS id x y z vx vy vz
1 0.42234 4.63143 0.114224 65.9409 -256.486 126.883
2 1.3071 3.32271 2.92749 304.631 64.8298 -137.038
3 1.65949 4.2585 2.57515 57.741 -106.818 -246.049
4 3.03054 4.95371 4.06205 33.6908 40.0547 -21.3637
11 1.63351 3.46854 0.203588 -99.9294 55.8398 22.4242
12 0.432786 2.47644 2.91677 0.373235 166.851 28.6047
16 2.83932 1.44228 4.44568 -97.0718 -172.144 -45.4149
17 3.36948 3.25459 1.692 118.409 79.8743 56.8961
21 3.71505 3.22564 0.769077 -211.853 -27.0962 111.8
5 0.443361 2.58608 2.13332 213.231 40.1421 240.673
8 2.2155 1.73702 2.94101 99.0558 -92.6697 -40.3614
13 2.56624 3.92757 0.443069 -68.4024 -29.473 -165.277
18 0.37016 0.538919 3.86353 316.24 68.0354 75.5887
22 4.9305 0.214652 2.45595 146.315 125.605 -128.295
6 1.67095 0.22418 1.31462 -19.9317 83.3253 143.66
7 2.23228 0.415239 1.5319 108.332 118.03 139.444
9 2.42794 0.204187 3.82217 118.748 -65.8537 140.776
10 4.54706 4.38932 2.0437 107.515 -165.525 -21.9562
14 2.59335 3.23898 2.59179 188.336 -393.137 -67.804
15 3.54185 1.94745 2.1761 -191.968 -277.527 -55.055
19 4.04498 1.668 0.550025 -205.342 -10.1253 6.56186
20 4.92404 1.83366 3.74534 -59.9718 36.5239 -76.1404
23 4.26111 4.987 2.36807 -176.326 -173.849 -297.777
24 4.71423 4.17129 0.019155 -175.396 55.6055 2.47256
25 4.20282 1.09973 1.21978 194.687 -121.958 -159.048
29 4.43433 3.15266 2.9964 180.821 52.1811 43.17
31 4.90902 4.00382 1.17999 -22.8576 232.902 116.084
32 2.41313 2.33146 4.07779 -199.466 245.793 287.895
36 1.81491 4.26413 0.483952 313.321 -49.0229 1.93104
27 0.11799 0.564482 4.60469 146.077 -35.1185 6.11213
33 4.386 2.80373 1.17226 -256.15 129.146 -66.0017
37 1.7691 4.79977 4.46552 -113.218 -188.911 -261.292
26 0.704047 3.854 3.51514 11.8408 -50.2957 35.2368
28 3.80762 1.21634 0.334525 -209.829 118.064 9.97029
30 0.27212 1.98827 1.56408 47.268 154.614 -73.9967
34 4.07986 2.40796 0.601082 114.103 38.2342 -83.2164
35 0.00719404 4.86945 0.609535 -220.363 -68.1367 -101.086
38 0.179365 2.01651 4.22664 -170.663 -9.51149 106.568
39 4.36478 3.033 4.56883 83.482 -302.619 203.78
40 2.80949 3.06489 1.39369 52.2676 -22.2722 -78.7097
44 2.39998 3.40918 4.43645 163.109 92.3061 263.392
45 4.46712 2.90908 0.0776262 -71.6889 -102.192 35.4925
49 4.47169 0.133224 3.1526 -111.765 -29.0962 -133.69
51 4.29105 3.20735 3.84552 -86.8611 396.406 -192.401
42 1.64731 3.72404 2.05859 -14.4063 -156.448 13.6754
46 4.58344 3.56392 2.65849 -94.3794 -61.763 192.896
52 4.48052 0.758038 4.03415 51.9242 66.6749 55.808
41 0.968503 1.38963 0.0625734 -122.731 -281.964 -122.792
43 1.22412 3.99557 1.35808 116.723 18.2621 82.281
47 0.0809364 3.13533 0.867055 -82.2382 62.6808 115.512
48 3.47613 2.89083 2.4571 -80.8531 237.926 -206.365
50 0.532407 4.79726 1.86997 212.558 181.545 -48.0939
53 1.95839 4.59342 3.39498 -63.1545 -30.8775 -91.199
54 3.27307 4.277 3.73097 141.847 96.7441 -38.55
57 2.6146 2.84124 0.951708 4.37343 120.431 185.391
59 3.40429 1.60185 4.046 -57.1528 265.258 -88.4145
61 2.59692 2.33074 0.659227 -97.5885 152.126 77.2907
55 0.403175 2.58003 0.534013 47.6898 99.5088 -160.621
62 0.415149 0.763829 4.90545 -49.2291 -122.38 -182.441
56 2.65536 4.84684 2.2679 -91.8728 -314.629 -2.69521
58 3.15053 0.249523 4.39138 -225.2 -129.88 85.7148
60 2.51678 1.01278 2.72988 -29.2459 60.5098 105.876
63 0.0130458 2.59109 0.980169 16.4563 91.7495 273.284
ITEM: TIMESTEP
700
ITEM: NUMBER OF ATOMS
63
ITEM: BOX BOUNDS pp pp pp
0 5.2
0 5.2
0 5.2
ITEM: ATOMS id x y z vx vy vz
1 1.13824 3.18865 0.663762 77.7582 -18.2566 -61.2138
2 3.72807 1.56838 3.51834 213.041 -287.858 149.954
3 1.57604 4.19768 1.99735 -5.15594 67.5045 -75.0754
4 3.15471 5.16009 3.79595 -65.4906 227.012 118.352
11 0.043992 4.82881 0.693527 66.7826 84.1671 6.25425
12 0.432614 4.09888 3.17063 112.542 123.281 -126.023
16 2.27463 4.54175 3.8874 -27.5556 -245.395 -73.408
17 4.50208 0.153583 0.680639 -252.84 401.435 -86.0994
21 1.3586 2.85979 1.69336 -231.883 -48.5902 88.9117
5 2.7832 2.94263 4.21621 237.955 34.6283 203.142
8 2.93375 2.16521 2.46291 66.628 69.3083 -51.2236
13 1.11942 4.28367 0.187017 -165.391 67.2834 -2.1316
18 2.93213 1.72447 4.63869 194.595 171.638 81.0948
22 1.2053 1.45053 1.15872 168.078 86.8402 -159.3
6 2.12311 2.22936 2.78768 64.8012 272.8 145.244
7 1.13946 4.61728 3.06246 -203.198 -155.504 194.063
9 3.14812 4.98275 4.713 89.0042 -52.3841 92.5587
10 0.273932 2.59581 1.87444 -111.452 -303.854 -87.8454
14 5.18978 0.0441203 2.38406 382.446 -167.653 -41.5954
15 3.32235 1.7632 0.963155 -35.2607 269.5 -195.638
19 2.56767 2.51163 1.14025 -144.767 89.0395 61.9437
20 4.30025 2.18798 2.95094 -62.482 35.3227 -79.6695
23 4.01941 3.12263 4.78234 145.581 -180.159 -266.221
24 2.31037 4.18517 4.77373 -276.178 -27.6312 -69.7251
25 0.950087 5.07943 4.83005 194.737 -122.044 -158.965
29 0.837976 1.98548 4.71426 159.322 -123.574 177.225
31 4.74489 1.19725 2.23827 5.03629 263.167 77.1811
32 0.478809 3.68133 0.862016 -369.317 -98.7705 54.8817
36 3.00065 0.167981 0.89503 -111.943 121.502 46.7219
27 4.57076 3.88653 2.43196 -76.7775 -189.165 -218.829
33 2.71519 3.40844 0.831247 114.582 -26.3612 51.3946
37 0.809727 2.99944 1.95403 110.298 -57.8593 -169.105
26 0.830676 3.36094 3.60975 5.84686 -45.4362 -167.547
28 1.28228 1.52597 4.87332 -218.053 48.6937 -128.571
30 0.909959 1.69639 1.62888 19.1057 -224.76 162.558
34 4.64941 1.27144 1.35356 47.3251 -140.618 103.828
35 3.63674 4.74027 0.0832438 -121.227 15.98 -27.3492
38 4.14457 1.81463 4.35033 -104.676 -22.8008 -32.3514
39 4.90434 5.07359 1.46805 39.987 -310.34 251.425
40 4.31523 3.45778 2.00748 151.096 28.466 44.2328
44 4.23865 3.36171 3.94713 61.0382 15.9225 -216.497
45 0.370609 3.1775 0.721992 274.272 -11.5787 158.936
49 3.56451 0.319054 0.410789 86.9858 -20.6107 -408.665
51 4.07452 5.15205 2.99379 -60.1216 -58.5961 118.042
42 1.43934 1.9816 2.04877 -21.8058 -176.936 -2.83069
46 3.88835 4.61502 3.26802 7.9798 120.893 20.9394
52 5.00305 1.41634 4.59109 53.5802 63.7434 55.661
41 1.8931 1.21519 0.956769 87.1171 -3.25396 174.752
43 0.992249 4.36187 0.839144 -92.0602 106.512 2.56968
47 5.01091 3.89524 1.93599 39.8109 27.7219 118.571
48 3.432 4.45561 3.53438 55.9718 -69.7038 131.201
50 1.56363 0.491678 1.17885 48.856 43.3062 -80.5076
53 1.32995 4.21203 2.46259 -140.098 -78.4886 46.7633
54 4.73026 0.0932479 3.8055 167.326 98.1646 23.8201
57 1.48982 3.35157 0.139712 -266.558 -50.5045 -236.34
59 2.83844 4.25252 3.15795 -61.2159 259.963 -89.9867
61 1.51519 2.56028 0.637195 -108.979 6.3769 -11.8136
55 0.954727 3.55197 4.39621 68.3279 92.6601 53.3864
62 4.79559 3.90803 3.78294 -218.322 126.166 54.0328
56 2.78777 4.24012 0.754061 42.2231 67.313 -234.971
58 1.31505 4.9863 0.957293 -57.3423 175.077 124.799
60 2.49407 0.263744 3.85429 2.62325 -100.153 113.295
63 4.90911 3.1757 3.88704 -52.5086 -262.549 251.765
ITEM: TIMESTEP
800
ITEM: NUMBER OF ATOMS
63
ITEM: BOX BOUNDS pp pp pp
0 5.2
0 5.2
0 5.2
ITEM: ATOMS id x y z vx vy vz
1 1.49835 3.23595 0.0248637 -283.291 -85.2541 -27.6596
2 0.683174 3.93101 4.98017 192.181 -220.866 202.63
3 1.75426 4.87158 0.805401 18.3579 67.2114 -121.75
4 3.12996 1.90096 4.7249 169.321 1.2971 -29.9111
11 0.315729 0.940058 0.539383 1.52878 163.507 -30.6069
12 4.99998 5.19327 1.26313 -80.9842 108.499 -202.976
16 0.743145 3.69596 4.55772 -210.179 -32.0966 81.8179
17 2.31809 3.9617 0.153923 -6.43443 307.964 99.7964
21 2.48133 1.36257 2.05198 133.591 -19.8497 202.362
5 0.0304813 3.61041 1.15728 251.951 101.358 228.948
8 3.41693 2.95602 1.82432 -6.55893 110.767 -100.939
13 4.6726 4.92882 0.0264091 -166.006 64.6855 -14.6265
18 4.70917 3.07594 0.0820713 -65.4636 -3.97872 -37.7927
22 2.5559 2.67472 4.93802 -36.8073 315.891 -15.5682
6 4.03061 3.33803 2.8197 272.315 8.9163 -92.2785
7 0.185771 4.03361 0.572624 -86.1934 -25.7452 290.735
9 3.34091 0.249449 3.91839 2.75966 119.682 -131.112
10 4.34908 4.79286 0.955468 -114.201 -296.929 -96.9804
14 3.82801 3.58962 2.09407 389.159 -160.111 9.18114
15 2.29225 4.2092 4.51764 -168.552 268.99 -231.042
19 1.66347 3.86349 1.87641 -332.319 45.6351 148.023
20 3.82848 2.45006 2.28747 4.52443 -5.56739 -26.9133
23 4.91962 1.43361 2.01958 76.8806 -166.271 -279.109
24 1.39207 4.97127 4.6435 -18.7441 116.516 17.7274
25 3.05846 4.36595 2.826 150.021 -45.1488 -280.052
29 5.15994 3.3717 0.297361 83.335 255.16 102.15
31 4.83148 3.69548 3.09853 11.0422 223.605 107.498
32 2.41683 4.25601 1.60805 -0.252161 241.603 -12.8928
36 1.94878 0.853191 0.905642 -95.2574 -103.604 -141.064
27 3.78294 4.03573 3.08399 -64.77 -44.4825 68.0923
33 3.76984 2.84637 1.21741 94.6188 -98.668 18.1972
37 3.80391 3.62292 1.42205 -237.948 70.5367 -51.217
26 2.28487 1.98448 2.46048 294.544 -211.087 -49.9723
28 0.951318 4.45688 3.65824 49.6277 -260.404 128.606
30 0.78178 4.48438 3.11307 -79.7926 -236.45 -100.135
34 5.11061 5.04081 2.44506 44.6826 -138.978 118.496
35 3.35323 4.42591 1.39137 -8.88378 -37.2909 159.666
38 3.11795 1.59256 4.01254 -98.7991 -21.8661 -38.1371
39 4.84233 4.66669 2.96481 -7.33405 54.5369 112.887
40 4.75167 1.63322 0.240032 27.878 -85.5618 -162.956
44 4.7778 3.58325 1.69427 45.9197 45.1831 -245.45
45 1.76086 1.6791 2.19348 26.4921 -186.434 128.462
49 4.38703 4.81137 1.988 75.8654 -130.087 -312.656
51 4.09301 1.86364 2.76134 10.0502 267.303 -81.1408
42 1.54008 0.415914 2.1323 28.5847 -150.961 16.1624
46 3.39917 4.40634 3.26249 -57.3033 35.489 40.7553