ITEM: TIMESTEP
0
ITEM: NUMBER OF ATOMS
63
ITEM: BOX BOUNDS pp pp pp
0 5.2
0 5.2
0 5.2
ITEM: ATOMS id x y z vx vy vz
1 0.0124407 0.0125604 0.0126352 124.409 125.604 126.353
2 1.18566 1.18557 0.012311 0.314479 -0.551421 123.109
3 1.18562 0.0125375 1.18573 -0.102059 125.373 1.00447
4 0.0123725 1.18576 1.18552 123.724 1.26952 -1.1447
5 2.37119 0.0124722 0.0125289 -0.679104 124.723 125.287
6 3.55682 1.18571 0.0122705 -0.724451 0.826166 122.705
7 3.55701 0.0124941 1.18551 1.20347 124.941 -1.21399
8 2.37139 1.18578 1.18555 1.3239 1.46602 -0.749165
9 4.72989 0.0125437 0.0127659 -126.333 125.438 127.658
10 4.73011 1.18551 1.18545 -124.125 -1.15324 -1.79885
11 0.0123792 2.37131 0.0125608 123.789 0.504951 125.609
12 1.18562 2.37122 1.18555 -0.0869761 -0.432393 -0.828207
13 2.3712 2.37129 0.0125694 -0.61905 0.297228 125.696
14 3.55694 2.37126 1.18574 0.554649 -0.0391316 1.12127
15 4.7299 2.37128 0.0125217 -126.187 0.187592 125.217
16 0.0126028 0.0124617 2.37138 126.028 124.617 1.19873
17 1.18571 1.18559 2.37131 0.819117 -0.420615 0.545064
18 2.37136 0.0123897 2.37134 0.999405 123.898 0.846984
19 3.55692 1.1857 2.37139 0.336657 0.659563 1.2637
20 4.73017 0.0123811 2.37129 -123.495 123.812 0.332212
21 0.0122647 2.3711 2.37113 122.646 -1.56509 -1.25678
22 2.37115 2.3714 2.37141 -1.10737 1.38228 1.53143
23 4.73015 2.37141 2.37125 -123.686 1.5291 -0.1272
24 1.18572 0.0122566 3.55701 0.8564 122.568 1.17851
25 0.0125246 1.18551 3.55681 125.246 -1.23155 -0.773788
26 3.55694 0.0124011 3.55688 0.522616 124.013 -0.04388
27 2.3713 1.18571 3.55681 0.417337 0.792266 -0.843073
28 4.73001 1.18551 3.55702 -125.15 -1.15797 1.33332
29 1.1857 2.37119 3.55684 0.65894 -0.667067 -0.541327
30 3.5568 2.37144 3.55702 -0.878372 1.84226 1.3375
31 0.0125599 0.0124698 4.7299 125.6 124.699 -126.21
32 1.1855 1.18578 4.73007 -1.31414 1.54271 -124.461
33 2.37112 0.0124969 4.73006 -1.3569 124.972 -124.563
34 3.55677 1.18559 4.73015 -1.2379 -0.388592 -123.674
35 4.73003 0.0127282 4.72991 -124.859 127.283 -126.112
36 0.012599 2.3711 4.72993 125.991 -1.64108 -125.865
37 2.3712 2.37144 4.73011 -0.554041 1.80716 -124.124
38 4.72999 2.37128 4.73014 -125.267 0.231667 -123.794
39 1.18554 3.55687 0.0124574 -0.898679 -0.218501 124.573
40 0.0122938 3.55677 1.18555 122.937 -1.1994 -0.749508
41 3.55704 3.55698 0.0122538 1.47533 0.949709 122.536
42 2.37113 3.55681 1.18548 -1.27749 -0.762745 -1.48913
43 4.73005 3.55686 1.18574 -124.7 -0.294907 1.06188
44 0.0125036 4.73004 0.0126228 125.038 -124.804 126.226
45 1.18563 4.73021 1.18575 0.0160393 -123.078 1.23842
46 2.3714 4.73018 0.0125074 1.35809 -123.357 125.074
47 3.55702 4.73008 1.18577 1.33881 -124.361 1.39254
48 4.72992 4.72993 0.0126085 -126.001 -125.911 126.086
49 1.18575 3.55675 2.37123 1.19939 -1.41272 -0.340555
50 3.55694 3.5569 2.37139 0.538858 0.143515 1.33538
51 0.0125718 4.73005 2.37117 125.717 -124.744 -0.907242
52 2.37144 4.72999 2.37118 1.78993 -125.306 -0.791013
53 4.72992 4.73001 2.37115 -126.041 -125.097 -1.06505
54 0.012259 3.55689 3.55698 122.59 -0.010254 0.901778
55 2.3714 3.55673 3.55681 1.41511 -1.61071 -0.82305
56 4.72992 3.55681 3.55686 -126 -0.776332 -0.333271
57 1.18562 4.72996 3.55682 -0.0861892 -125.627 -0.722063
58 3.55702 4.73025 3.55693 1.2836 -122.689 0.390928
59 1.18571 3.55695 4.7301 0.760014 0.617746 -124.207
60 3.55684 3.55702 4.73011 -0.530309 1.25712 -124.126
61 0.0126185 4.72992 4.72975 126.186 -126.049 -127.72
62 2.37119 4.73001 4.72987 -0.653655 -125.083 -126.504
63 4.73001 4.72976 4.7299 -125.133 -127.606 -126.241
ITEM: TIMESTEP
100
ITEM: NUMBER OF ATOMS
63
ITEM: BOX BOUNDS pp pp pp
0 5.2
0 5.2
0 5.2
ITEM: ATOMS id x y z vx vy vz
1 0.833782 0.795565 0.857001 -5.08299 -11.9783 -2.0908
2 1.88802 1.83373 0.766366 -180.419 -194.245 -65.6653
3 1.57575 0.894912 1.89884 -310.704 -12.0808 -173.334
4 1.00252 1.93982 1.60481 50.7619 -141.786 -292.556
5 2.32805 0.870114 0.909067 -6.65885 -2.68124 3.74773
6 2.98822 1.74238 0.990686 233.148 -245.932 38.0452
7 2.85687 1.02463 1.74336 182.215 48.9624 -254.21
8 2.35901 1.62055 1.61833 -15.1259 -194.129 -209.109
9 3.90459 0.816323 0.735987 4.77889 -7.60305 -20.9324
10 3.83059 1.73594 1.76884 -9.74525 -235.911 -223.092
11 0.854982 2.39492 0.906555 -4.1756 3.55938 3.34833
12 1.72239 2.35923 1.6358 -152.461 5.68891 -190.072
13 2.41796 2.34132 1.0996 0.198079 -11.8612 -228.186
14 3.19014 2.39075 1.52672 242.296 -7.98867 -249.116
15 3.82985 2.37683 0.863995 -4.12114 0.795693 -3.4293
16 0.894901 0.879149 2.3973 0.98985 -0.689335 3.45664
17 1.62831 1.58224 2.42858 -207.351 -216.76 24.306
18 2.41464 1.05867 2.41921 16.0833 -251.021 32.4849
19 3.15242 1.68708 2.31118 205.467 -174.7 -38.5282
20 3.85515 0.885456 2.35872 -0.532722 -0.146351 -2.32137
21 1.08787 2.33938 2.3587 -242.147 -19.5176 -12.7255
22 2.40657 2.42094 2.453 9.7202 21.4257 42.1289
23 3.71139 2.3493 2.39478 265.426 -13.1422 -4.34441
24 1.92765 1.00789 3.00176 -151.092 46.9328 237.733
25 0.799363 1.62021 2.84056 -52.9479 -290.809 165.668
26 3.1093 0.688306 2.93674 279.863 -102.882 195.162
27 2.3271 1.60771 3.13356 -20.2513 -215.716 202.184
28 3.94379 1.755 3.0079 50.4407 -223.683 244.215
29 1.6025 2.33504 3.14971 -214.418 -15.8539 212.917
30 3.08603 2.40174 3.13999 174.092 20.6453 200.627
31 0.815886 0.845866 3.94491 -8.6286 -3.08345 11.4525
32 1.79312 1.74169 3.87677 -212.502 -241.23 23.7738
33 2.3254 0.899301 3.85492 -6.64244 1.73968 -0.0552482
34 2.97731 1.82479 3.78968 240.153 -208.493 -23.619
35 3.8679 0.820582 3.9519 -1.41913 -7.73117 11.92
36 0.89294 2.33428 3.85321 0.85988 -4.94549 -0.391046
37 2.32786 2.35791 3.67796 -10.7119 2.25207 252.711
38 3.86834 2.34692 3.85055 1.85696 -4.21067 -1.59439
39 1.66786 2.92939 0.844607 -270.153 211.373 -22.4199
40 0.77781 3.19084 1.99244 -60.9396 323.252 -114.897
41 3.04097 2.90843 1.00625 249.588 215.618 39.8676
42 2.43527 3.09077 1.63879 36.9152 185.449 -194.121
43 3.91887 3.00021 1.77185 41.7936 223.091 -219.464
44 0.823499 3.93909 0.832446 -7.25203 10.291 -6.09819
45 1.71807 3.70145 1.66539 -245.449 -54.4563 -261.394
46 2.4345 3.88767 0.911207 9.46012 4.50966 4.38017
47 2.86054 3.81125 1.79813 188.295 -7.60976 -212.548
48 3.98878 3.94602 0.880218 18.371 11.3776 2.04228
49 1.5782 3.08618 2.33985 -216.225 184.418 -20.5894
50 3.10778 3.19652 2.31594 189.42 234.275 -15.4165
51 0.902321 3.84921 2.35061 2.02902 -0.377214 -2.65009
52 2.33803 3.7137 2.36556 -13.01 266.198 5.23178
53 3.85538 3.86442 2.31691 -0.540516 0.903453 -8.22138
54 1.02326 2.71193 3.01435 54.4273 115.629 254.369
55 2.26665 3.10265 3.12077 -40.4626 182.032 193.257
56 3.66443 3.06898 2.89668 -78.3882 260.18 199.648
57 1.84201 3.71884 3.00215 -200.414 -50.7786 250.759
58 2.97736 4.10163 2.91735 235.83 129.255 205.271
59 1.68702 2.9902 3.7596 -251.86 229.315 -37.3267
60 2.93047 2.94236 3.90685 211.497 217.255 36.1828
61 0.846449 3.9886 3.9487 -3.4196 18.3497 12.2515
62 2.32728 3.86437 3.82465 -6.80736 1.59607 -4.33958
63 3.97807 3.85825 3.91056 16.0819 -2.33738 5.71576
ITEM: TIMESTEP
200
ITEM: NUMBER OF ATOMS
63
ITEM: BOX BOUNDS pp pp pp
0 5.2
0 5.2
0 5.2
ITEM: ATOMS id x y z vx vy vz
1 0.913038 0.404924 0.63289 14.5166 -179.472 81.7701
2 1.29131 4.13674 4.26527 -8.82787 -325.529 -200.435
3 3.58307 0.947958 0.602766 -313.253 52.824 -84.2755
4 0.258476 1.54405 4.98858 -101.139 -81.9265 -32.245
5 1.46161 0.316855 0.57586 -226.929 112.121 153.443
6 5.15672 1.59382 3.10433 192.123 35.654 -394.845
7 3.28256 5.09685 1.08225 4.80461 -137.404 -8.86219
8 2.25003 1.45208 0.860588 -9.67918 30.4752 -40.2515
9 4.06684 0.168035 0.327828 25.0468 -99.759 -53.8674
10 5.11305 4.31258 1.2495 164.251 -269.647 -2.80673
11 4.66734 2.54362 0.415225 -195.579 18.6104 -69.6728
12 1.54653 2.33616 0.253495 39.4666 -6.11624 -117.14
13 3.2078 1.76858 0.948587 148.065 -98.5048 171.312
14 3.6081 2.29823 1.23294 8.80387 -8.44476 8.26453
15 3.73017 2.26555 5.13821 -295.235 -27.5159 72.4143
16 4.26321 4.81835 1.96466 -253.503 -94.2053 -81.0018
17 1.29606 0.921938 3.04379 9.6334 -29.1199 70.9001
18 3.52388 0.158474 3.60377 59.9978 -100.788 194.493
19 4.39534 1.40551 1.4267 98.8491 18.9 -105.026
20 4.65047 4.61878 2.85587 101.751 -193.97 74.2497
21 1.42214 1.87758 1.72172 242.099 -66.4062 -102.377
22 2.50369 2.63513 2.87419 9.71164 21.4176 42.1276
23 3.61007 2.48355 2.85793 -218.806 33.649 84.9848
24 1.12699 1.09543 4.01624 -55.4583 -5.29561 61.1776
25 0.804791 3.71202 3.65277 216.546 -335.662 3.89451
26 0.17914 5.1457 3.9438 157.064 -5.21973 -40.9144
27 2.23007 1.11074 3.45108 -8.53209 -10.1625 -10.5943
28 5.08894 1.31066 4.39235 36.5512 138.024 77.9094
29 1.31522 1.7075 3.73586 13.9891 -66.3456 19.8493
30 3.33562 3.05735 4.21508 -22.3681 80.1813 78.5172
31 1.33887 3.63807 0.136815 330.25 -422.588 298.862
32 0.834194 1.09054 0.339549 -27.2092 100.087 91.3829
33 2.06131 0.170178 4.93206 -133.038 121.796 75.3856
34 3.9049 0.588358 3.43286 161.894 47.4633 -55.1572
35 3.35027 4.95919 5.0593 -208.9 -124.857 103.974
36 1.14317 2.58215 4.25619 7.3492 -94.4137 -2.5622
37 1.56006 2.87737 4.02939 154.65 223.163 -262.759
38 0.195421 1.92135 4.68458 167.386 68.2554 -0.592709
39 4.18448 2.9236 4.30514 -195.805 -120.272 -142.794
40 0.0514231 1.09614 0.608537 -76.3838 309.258 -140.746
41 4.653 3.05653 5.03222 140.592 -56.6901 -167.804
42 3.066 3.36847 0.7863 71.8815 -22.6185 -50.6771
43 1.19058 5.08822 1.16309 156.508 333.065 -219.121
44 0.174895 4.67671 0.134628 -88.2186 99.5459 -97.1919
45 0.576785 3.88945 1.90526 -39.7318 -11.9542 129.645
46 2.58597 4.21017 0.390604 65.3251 -143.92 7.0033
47 3.53532 5.16346 0.475857 7.16955 175.115 -104.009
48 3.98964 5.07018 5.07921 39.8233 133.427 -105.546
49 0.335633 3.2172 1.84671 -102.802 -43.5703 -54.6498
50 3.04674 4.4055 2.08624 -53.5321 93.9299 -24.8524
51 0.112142 0.480578 2.87642 -99.7033 232.647 67.129
52 1.28186 4.61375 1.7055 -51.3687 -126.528 64.574
53 0.702969 4.74055 2.37692 280.812 43.8191 25.8991
54 1.28878 3.13477 4.93281 19.066 25.0786 181.641
55 1.42011 3.44084 4.03249 -99.6963 0.603127 58.57
56 3.02732 0.714921 4.5055 -1.73344 341.645 110.765
57 1.23204 4.73052 3.81586 -20.6101 124.81 29.5577
58 4.55495 4.74047 0.0789123 108.584 -75.5199 270.281
59 3.59036 3.76857 0.318804 -140.336 -37.9882 291.989
60 3.32996 4.04207 4.60252 138.501 -239.898 115.981
61 0.915768 0.00779915 4.20186 16.6545 176.292 36.8026
62 2.35086 0.00582027 3.79816 -330.87 358.311 -349.886
63 5.12132 4.53121 3.62496 -30.4698 112.145 -32.0824
ITEM: TIMESTEP
300
ITEM: NUMBER OF ATOMS
63
ITEM: BOX BOUNDS pp pp pp
0 5.2
0 5.2
0 5.2
ITEM: ATOMS id x y z vx vy vz
1 4.03311 4.22695 1.18536 -203.755 -106.052 34.1171
2 0.771724 4.51508 2.48306 -55.0975 70.1646 -176.809
3 0.773715 1.54249 4.66856 -205.796 84.0946 -176.238
4 4.75511 0.0203524 0.126899 -47.5473 -61.1856 -34.5124
5 1.35122 2.06909 5.00304 -46.3832 -4.83013 -54.9702
6 1.51688 2.32666 0.350675 45.9319 68.0687 -229.927
7 3.31527 3.82663 0.782696 3.58974 -119.701 -46.4599
8 2.38895 1.18147 0.12355 -154.455 -314.625 -101.716
9 4.95133 4.60267 0.804106 71.9936 -165.282 124.094
10 0.757738 2.05582 2.16478 -161.875 -98.138 385.072
11 3.05134 1.71602 0.0105424 156.503 57.1827 -17.1661
12 3.56925 3.58943 3.67737 346.947 248.539 -238.312
13 5.09117 0.601065 2.36715 273.95 -136.603 83.9658
14 3.73104 2.29689 1.33108 12.6168 0.879036 9.89449
15 2.29851 3.06919 4.85086 172.799 281.355 -279.799
16 1.78053 4.62414 1.51745 -237.893 15.0617 -36.8704
17 3.77359 1.7829 4.26477 -341.365 113.995 135.831
18 3.87477 4.10252 0.260267 25.7182 -134.97 180.492
19 4.77602 1.57456 0.626832 -120.67 12.087 -12.6396
20 0.332676 2.84169 3.5372 14.2913 -79.1735 43.2176
21 3.4858 0.729373 0.697618 182.617 -147.46 -103.65
22 1.22439 3.20571 2.9562 -185.96 72.3469 -6.65184
23 2.00868 2.98041 3.42287 -177.386 85.131 12.8728
24 5.04117 1.8304 4.61621 -205.808 91.5466 70.8608
25 2.12652 0.643871 2.39003 14.561 -217.606 -221.65
26 0.701537 5.11734 3.33271 0.417772 -3.08388 -71.7919
27 2.6087 0.770278 3.68839 149.936 -100.343 107.741
28 0.129741 2.72099 4.90176 19.2264 146.053 46.2744
29 1.79866 0.440938 3.23806 46.5922 -202.569 -109.235
30 3.19639 4.20257 4.60476 50.0105 267.333 -91.6858
31 4.35604 5.11086 3.22344 -53.6175 -472.113 23.9151
32 0.433633 1.49821 5.07255 10.782 -91.6105 -190.826
33 0.457635 1.15496 0.633008 -204.851 51.3277 124.684
34 0.355493 1.09171 2.85565 163.979 48.3667 -57.7593
35 1.21038 3.68604 0.847617 -214.492 -120.74 93.5217
36 1.46707 1.28918 4.18939 62.9307 -77.2367 12.2363
37 3.51274 4.67039 1.18817 195.598 178.941 -283.547
38 1.01343 3.69664 4.22264 49.0896 187.55 -35.1942
39 3.03424 1.19045 3.49595 -36.2947 -221.654 -23.3385
40 4.92018 4.31058 4.31752 42.1923 337.23 -178.848
41 0.900048 2.31177 3.36743 208.448 -175.591 -144.999
42 2.66137 1.99173 0.820975 -95.5809 -117.37 79.7347
43 1.84909 0.972042 1.74693 -120.571 200.867 -43.8088
44 4.52424 0.461411 4.31943 -85.4945 96.2378 -106.172
45 0.291139 3.80316 3.52891 24.9256 2.25361 329.473
46 3.27967 3.06949 1.17489 80.1825 -51.744 237.768
47 3.13428 1.60151 4.61747 27.8068 93.9545 -290.665
48 4.57464 1.2395 3.73506 133.836 299.164 152.503
49 4.48317 2.74444 1.31482 -106.055 -48.0494 -52.3985
50 2.67263 0.573335 2.35404 169.325 89.3811 133.875
51 4.33454 2.84045 3.54175 -96.7826 238.442 66.0313
52 0.78117 3.33202 2.32335 -48.9862 -128.537 60.409
53 3.41244 5.10205 3.01005 256.723 19.7857 123.216
54 1.36932 3.22752 1.29931 7.80592 2.33006 160.182
55 0.365096 2.05688 5.06362 -223.745 21.168 33.0771
56 2.72661 3.48764 5.0854 -117.994 69.4671 14.9201
57 2.09628 0.707232 4.25964 138.893 115.782 55.0056
58 0.122881 3.50644 2.7568 8.27638 -168.016 122.696
59 3.50662 3.17767 2.3481 32.7411 -148.527 154.403
60 4.59869 2.69205 0.299666 76.6884 -66.592 83.6622
61 1.17378 0.591191 4.93647 30.3049 -2.90929 89.6803
62 1.92679 1.77435 0.8843 19.736 10.6917 -10.8604
63 5.02848 0.419046 3.37026 220.486 105.534 43.0774
ITEM: TIMESTEP
400
ITEM: NUMBER OF ATOMS
63
ITEM: BOX BOUNDS pp pp pp
0 5.2
0 5.2
0 5.2
ITEM: ATOMS id x y z vx vy vz
1 2.01651 3.14613 1.58536 -202.105 -107.932 41.0712
2 5.14816 0.165532 1.48351 240.539 -36.6987 -200.022
3 0.264512 2.21613 0.393411 -17.8476 15.7627 286.215
4 1.04437 4.67776 3.80882 262.12 -55.7561 -211.218
5 0.691886 1.70491 4.06413 -63.3943 -41.9662 -97.6477
6 2.20464 3.30972 3.63975 71.2998 101.436 -187.845
7 3.1909 2.5776 0.331622 -83.6354 -105.548 -18.1056
8 0.785527 3.35657 4.52267 -235.783 -183.373 128.933
9 0.473701 2.99609 2.056 72.1839 -154.924 128.088
10 4.80969 0.0627174 2.74328 126.808 -270.262 -103.771
11 3.39534 1.87761 0.166693 -108.66 -1.57529 70.1035
12 4.33327 0.0674319 1.79292 -323.736 -331.524 -15.632
13 2.81632 4.80644 2.4826 287.939 -79.6042 -47.9726
14 3.34 2.00009 1.63278 -131.808 31.3528 4.36395
15 3.86231 0.388002 1.6786 155.727 240.7 -334.662
16 4.86454 4.88229 0.472714 -257.138 105.14 -110.894
17 3.22989 4.45485 0.0641017 -91.0688 273.334 106.958
18 4.12721 2.93044 2.07442 -57.8424 -30.2004 223.851
19 3.96107 1.33288 1.1062 -12.7943 -87.3114 152.594
20 1.3591 3.32817 3.90271 246.468 17.3678 -147.679
21 5.00236 1.76633 4.6513 140.887 189.623 -131.331
22 4.70838 4.05396 3.14271 -168.985 88.6017 23.2587
23 0.238042 3.85584 3.53856 -176.943 93.1291 8.2878
24 3.44379 3.41139 4.29748 -107.807 219.115 -110.22
25 2.02281 3.66952 0.750673 5.42032 -224.257 30.176
26 0.536965 4.68802 3.33225 -26.5585 -65.9188 34.2329
27 2.10561 0.0200281 0.00355148 -141.54 -29.8946 151.844
28 5.07177 3.30609 0.535811 -70.2264 -13.9757 133.012
29 2.26564 3.61302 2.14627 46.9859 -202.908 -108.823
30 5.18144 0.786581 3.78766 283.308 128.482 -77.589
31 0.488453 0.381961 2.99516 -156.245 -204.429 55.7302
32 4.95996 0.387971 4.79174 -90.4422 -7.74565 150.626
33 3.67629 1.60402 1.9107 -125.56 -32.1194 165.433
34 1.90081 1.77518 1.62239 138.835 108.794 -245.471
35 4.38014 2.34498 1.66109 -117.372 -224.108 37.2335
36 2.08634 0.521317 4.3106 63.0025 -76.1972 13.0943
37 3.88591 3.92903 4.9185 1.76935 -157.995 -86.2572
38 1.51138 0.374687 3.86728 48.615 187.425 -37.0335
39 3.07869 4.78586 2.96533 9.98933 -145.535 -13.3192
40 0.869323 1.70372 2.84966 176.616 186.244 -98.7346
41 3.05029 0.537359 1.94189 248.594 -194.948 -101.907
42 2.4023 0.825318 1.68645 -40.0878 -99.7948 44.6431
43 0.640507 2.98268 1.30672 -120.139 200.5 -45.5822
44 3.71428 1.29247 3.55375 -76.3708 -15.426 -56.4897
45 1.26677 4.35658 1.15786 219.338 31.0233 205.451
46 4.0743 2.56713 3.55132 79.2112 -49.1503 236.946
47 1.37734 1.5959 2.44498 187.263 295.922 -204.691
48 0.730665 4.22561 5.11936 143.944 296.475 107.87
49 3.89619 2.68471 0.756539 -27.1255 47.3614 39.1276
50 2.52879 2.16232 3.07028 -390.752 273.71 -15.9292
51 3.34728 5.15871 4.35942 -99.3965 229.981 86.7465
52 0.199967 1.94204 2.64526 -60.5692 -140.593 24.8072
53 0.561415 5.17964 3.8959 237.188 -81.6158 -74.2431
54 1.47469 3.2082 2.95206 10.7014 -2.11935 165.536
55 3.6607 2.47432 0.10006 -101.954 13.8668 -107.156
56 1.70682 4.42564 4.96801 -117.172 101.845 -203.715
57 3.45616 1.85096 4.79539 125.259 100.413 -36.7296
58 4.70517 2.09122 3.13219 -119.025 -120.857 -33.9022
59 3.81045 1.73987 3.92863 34.6644 -60.3126 200.081
60 0.166366 2.08603 1.26361 77.4096 -58.2618 102.539
61 1.46583 0.566819 0.63567 28.7815 -2.22026 90.0261
62 1.39001 1.89828 0.634956 -70.5138 13.6371 -29.0254
63 2.03008 1.47672 3.80814 219.732 105.815 44.7195
ITEM: TIMESTEP
500
ITEM: NUMBER OF ATOMS
63
ITEM: BOX BOUNDS pp pp pp
0 5.2
0 5.2
0 5.2
ITEM: ATOMS id x y z vx vy vz
1 0.0555859 2.06939 1.90784 -169.887 -112.875 17.5359
2 1.92151 4.71816 5.06781 165.382 -85.073 -136.235
3 5.0227 2.71245 2.82378 -75.9128 61.0032 241.246
4 3.60858 4.08194 3.48415 235.174 -67.3811 178.212
5 5.11641 1.62405 2.7902 -100.579 -4.47111 -347.784
6 3.3579 3.79222 1.24303 149.617 -26.1312 -286.057
7 2.70245 2.84313 3.56962 -28.8705 65.9677 -315.191
8 3.74228 1.5458 1.28937 -213.155 -179.543 269.013
9 1.1721 1.43238 3.34348 70.3355 -152.798 138.052
10 1.01511 2.84715 1.41628 167.916 -189.683 -183.519
11 3.2974 1.99836 0.725328 175.196 146.511 -15.6705
12 2.07512 1.52919 0.700408 -56.4091 -350.125 -81.8453
13 5.0112 4.58106 2.26928 207.245 -5.67293 12.6845
14 1.93106 2.38854 1.61532 -141.185 35.8559 4.21592
15 0.46114 1.88065 3.64145 206.327 140.811 -103.183
16 2.25977 0.712163 4.58146 -261.101 104.593 -107.176
17 2.06164 0.882655 1.04497 -160.621 -135.055 45.8322
18 3.44387 2.9746 3.88754 -37.651 112.723 130.123
19 3.06769 0.314499 2.51664 -22.884 103.613 226.322
20 3.1737 2.85341 3.24808 -41.0602 -142.679 -199.581
21 1.20987 3.66165 3.33676 140.78 189.425 -131.554
22 3.01094 4.991 3.36562 -166.21 112.62 24.325
23 3.26785 4.5434 4.04257 -260.555 52.8905 106.223
24 2.44392 0.510144 3.31051 -76.4173 256.52 -78.7021
25 1.03272 2.2736 0.658665 -298.219 80.3791 133.705
26 0.295084 3.95822 3.65659 -21.2486 -75.2867 33.512
27 1.63776 4.64826 2.01952 -31.5811 -111.067 209.783
28 4.42168 3.32815 1.6506 -19.2911 117.482 -90.026
29 4.63513 2.5087 1.55316 299.164 -176.132 -33.088
30 2.24944 1.78229 2.27883 146.701 104.234 -236.433
31 4.55034 3.84084 3.11943 15.1127 -169.65 -110.762
32 4.09414 0.321319 1.08237 -85.2589 -7.39147 149.468
33 2.17745 1.4918 3.11717 -168.266 15.9747 84.2678
34 1.97554 1.46092 1.68766 -136.486 -41.8564 249.958
35 3.92614 1.93348 2.70587 -12.5687 42.5069 134.438
36 2.72964 4.95241 4.45161 63.5223 -79.4125 12.7801
37 4.24811 2.65991 4.31046 151.549 -28.24 41.8223
38 2.61107 2.20476 4.00743 167.026 178.431 64.0866
39 4.26056 4.04893 3.55694 175.039 73.5248 113.692
40 2.61184 3.54429 1.9019 175.055 182.865 -94.9213
41 4.52318 4.10875 1.70308 -62.8692 -100.297 139.171
42 2.01795 5.05165 2.14599 -1.38558 -58.8065 66.4264
43 0.471194 4.70342 0.0764518 131.739 189.417 -223.914
44 3.29302 0.697977 3.49055 -0.834932 -102.506 66.523
45 3.08344 4.6274 1.4529 61.6164 -171.692 -260.35
46 0.565841 2.45741 4.95163 221.667 12.4593 50.3222
47 1.28459 3.66168 0.598054 -132.819 174.054 -146.213
48 1.67817 2.24891 4.88909 105.761 205.865 -328.735
49 3.63047 3.18766 1.09111 -26.994 56.4526 15.8111
50 4.11417 3.24645 2.34345 -368.959 21.3462 165.061
51 2.35535 2.25935 0.0272331 -98.2921 230.14 86.8532
52 4.78893 0.537187 2.88876 -61.0784 -140.512 24.2845
53 2.85817 4.3557 2.97376 203.435 -108.006 -119.551
54 0.701 4.36636 5.07711 -38.8711 78.3891 173.458
55 3.08188 3.30144 4.38341 -46.3702 124.357 -63.1201
56 0.482666 0.221482 3.08808 -126.225 98.4395 -178.203
57 4.22188 2.19054 4.94578 116.298 -37.7996 173.834
58 3.52465 0.887009 2.78555 -113.38 -118.427 -39.8084
59 4.35363 0.685238 0.446409 56.9626 -121.009 161.104
60 1.07848 1.15991 2.76158 94.5456 -109.378 154.9
61 1.75154 0.571677 1.55197 27.0707 1.27658 94.303
62 0.660293 2.02722 0.336266 -122.702 -10.6245 -56.7088
63 3.78247 1.98915 4.00159 55.9631 -150.545 -25.0182
ITEM: TIMESTEP
600
ITEM: NUMBER OF ATOMS
63
ITEM: BOX BOUNDS pp pp pp
0 5.2
0 5.2
0 5.2
ITEM: ATOMS id x y z vx vy vz
1 3.75854 2.44053 0.37997 -81.2459 -4.56855 -109.603
2 3.04458 4.98003 4.7243 63.6978 123.577 67.0298
3 4.23429 3.28336 0.0122871 -89.1378 55.1103 238.194
4 0.429177 3.34552 0.0656123 208.528 -70.4802 180.647
5 3.6415 4.59035 1.87521 -153.454 -267.317 -51.0049
6 4.8275 4.0292 3.43639 150.742 31.1432 -302.648
7 1.6152 3.52208 0.664386 -120.883 64.1428 -294.542
8 1.73019 1.17992 3.7749 -167.598 324.156 206.329
9 1.35599 0.464105 4.19964 -6.57371 -43.1277 81.1257
10 2.6816 0.978919 4.72604 166.166 -186.922 -190.526
11 5.04794 3.46957 0.563689 174.738 147.999 -16.4174
12 1.55852 3.34886 4.91201 -50.7321 -336.129 -102.924
13 1.14434 4.97904 2.10649 -138.111 63.8144 -206.306
14 0.576544 2.73885 1.753 -136.343 27.2729 16.5569
15 2.54616 3.41812 2.57405 220.143 206.423 -103.367
16 0.0722103 1.91151 0.512969 -199.935 126.72 209.821
17 0.4825 4.72112 1.3072 -158.487 -136.634 24.4553
18 3.92116 4.7678 4.85075 85.165 248.589 66.5285
19 2.34451 1.22148 4.00642 -42.5439 121.684 127.459
20 3.36746 1.30993 0.89 22.3796 -155.446 -237.404
21 2.37905 4.56856 3.47215 85.1513 -182.155 97.6836
22 0.666995 5.18943 4.30949 -216.405 63.6751 -24.1365
23 2.15453 3.32429 4.15383 -63.0268 -176.486 82.2328
24 1.72693 2.8039 2.43674 -80.7071 162.411 -105.543
25 3.94135 3.70263 1.58917 11.3175 79.2696 -90.9018
26 0.00317335 3.27766 4.03562 -167.224 89.9356 127.628
27 0.766726 3.30635 1.67266 -76.4198 -163.128 -128.253
28 4.21522 4.29988 0.588533 -20.7679 94.0904 -109.304
29 2.47011 0.967312 0.834102 220.391 129.365 -114.901
30 3.6455 2.95105 5.05028 72.1015 181.367 -307.575
31 4.79519 2.05715 1.85585 24.5743 -179.176 -126.266
32 3.16256 0.172736 2.55898 -110.811 -29.0307 144.764
33 0.441006 1.84085 4.06347 -176.284 59.1752 110.701
34 0.571152 0.913968 4.06536 -140.805 -75.3561 221.504
35 3.78039 2.30832 4.0224 -70.478 -71.0668 76.5624
36 2.50214 0.370496 1.09116 54.7527 -208.478 248.172
37 4.75843 3.05039 4.87717 -140.099 164.538 83.7394
38 4.12881 2.72528 4.16007 271.945 -35.1123 -84.7078
39 1.00409 4.82819 5.10302 145.445 -24.2025 315.782
40 4.36177 0.172399 0.953521 174.943 182.814 -95.0767
41 0.0560708 2.91063 3.22794 190.725 -151.728 151.225
42 2.45453 4.65271 2.71798 150.615 -81.7462 5.1743
43 1.37843 2.98713 4.00533 291.441 216.992 -152.038
44 3.32246 4.87936 4.18144 15.9802 -100.47 49.4009
45 3.2889 3.24139 4.7083 -90.8769 -11.97 -18.6176
46 2.79245 2.62052 0.212653 222.649 16.9482 45.5287
47 1.3045 4.22504 1.80279 30.9589 32.1352 178.844
48 0.247116 2.80862 3.79281 -231.115 -220.221 0.0815783
49 3.46878 3.21905 1.35014 -21.1716 -6.73451 23.2517
50 3.16861 5.06176 1.93786 130.979 315.991 -226.831
51 1.38186 4.55929 0.902467 -96.8355 229.624 87.4765
52 4.16799 4.33121 3.13307 -62.6517 -140.406 24.2014
53 3.20025 3.82268 2.05871 -316.02 72.5707 83.4479
54 0.428593 4.03398 3.01773 -50.1775 -13.3631 -266.027
55 3.23381 3.00299 3.66559 118.025 -192.633 -93.3295
56 4.61905 1.18792 1.3385 -88.3141 95.6136 -172.058
57 0.192809 1.80365 1.4815 119.332 -39.8365 172.032
58 3.78462 0.870521 2.36626 57.3547 32.6072 -30.0152
59 4.93404 4.68079 2.0414 58.4676 -120.537 159.165
60 1.87092 4.71418 2.72554 103.694 -144.605 34.6404
61 1.94534 0.493145 2.83133 19.2789 -3.32954 126.812
62 4.35166 1.66901 4.70975 -152.349 -36.6896 -82.8844
63 4.3416 0.482751 3.75152 55.9057 -150.666 -24.9889
ITEM: TIMESTEP
700
ITEM: NUMBER OF ATOMS
63
ITEM: BOX BOUNDS pp pp pp
0 5.2
0 5.2
0 5.2
ITEM: ATOMS id x y z vx vy vz
1 4.26214 1.5866 3.9118 54.7468 -107.196 -213.235
2 2.65864 4.89128 0.105858 -105.499 -102.222 44.406
3 3.38766 3.83361 2.28517 -71.8543 66.3523 212.511
4 1.55443 2.70886 1.1633 -182.908 -21.1734 -78.0524
5 2.65497 2.30703 2.36544 134.616 -198.353 278.967
6 1.10191 2.53626 3.13768 150.737 -209.375 52.96
7 0.414444 4.17824 2.91486 -119.618 69.6647 -295.855
8 3.42878 1.84516 3.33728 -424.05 -37.6026 -149.152
9 1.29214 0.0335455 5.01031 -6.82161 -42.3063 79.7239
10 4.35303 4.33619 2.80997 169.072 -172.415 -194.103
11 1.57744 4.96069 0.398019 173.101 149.186 -17.562
12 2.42432 2.22976 1.59331 161.882 -70.4145 300.573
13 4.13255 5.14115 1.39774 -263.697 -106.394 184.137
14 4.03407 2.24454 2.22953 -175.167 -55.5077 51.4072
15 2.98172 3.50602 3.64148 -89.0221 -19.9357 107.363
16 3.26519 3.18431 2.60921 -201.189 125.817 211.884
17 4.08178 3.35996 1.54323 -159.846 -136.125 24.2834
18 4.67561 1.79903 0.15871 26.7754 122.974 -18.7921
19 2.12625 1.49762 0.352038 -0.179498 -101.315 191.553
20 4.77887 1.23985 3.99604 217.426 143.629 -153.143
21 3.46692 2.88085 4.61693 123.557 -159.749 120.673
22 3.84391 0.30301 3.97988 -160.61 -46.5653 -51.8343
23 2.0802 2.69661 4.46833 6.24446 81.4839 -38.3483
24 0.941822 4.41665 1.42958 -71.1726 158.739 -85.9089
25 4.18654 4.81294 0.78957 33.4274 128.936 -75.9821
26 3.64546 4.2531 0.01753 -135.258 92.0499 99.9898
27 0.376773 2.43581 0.10404 -38.7446 -79.6341 -158.298
28 4.00782 0.0419741 4.69591 -20.6529 94.223 -108.828
29 3.94291 2.43693 4.74421 68.865 155.519 -156.271
30 5.10661 4.38076 2.34974 159.444 143.951 -267.031
31 5.16912 0.507648 0.768948 102.129 -73.8905 -54.1218
32 2.12917 4.98377 3.98855 -87.0385 -67.5196 135.415
33 4.81156 2.14867 1.10463 0.498338 115.234 328.164
34 4.2048 0.29626 0.350356 -220.417 -24.1883 -132.993
35 2.62847 1.90644 4.67797 -137.365 -7.98629 61.8959
36 3.03118 4.94337 2.55411 1.79154 118.53 -39.9685
37 3.33499 4.70864 0.648857 -157.798 172.455 122.302
38 0.947109 3.55965 3.50778 180.813 107.709 -58.2402
39 0.166486 3.6923 0.919161 -280.018 -179.65 -70.2175
40 0.916546 2.0035 0.00739574 177.828 181.322 -94.634
41 2.00945 1.70614 3.65702 196.592 -118.265 37.146
42 4.58642 3.77295 2.53371 266.782 -102.917 -58.9156
43 4.48612 4.02087 3.96632 350.776 -63.9559 261.694
44 3.53362 3.83019 4.52972 16.8503 -106.138 26.8702
45 1.58599 3.45627 4.17919 -179.853 19.3195 -49.265
46 3.62762 3.57271 1.07275 49.9536 116.287 90.8377
47 1.60898 4.54318 3.5881 29.7123 31.9033 178.283
48 3.08452 4.921 3.63657 -279.358 -316.202 -70.4519
49 3.44783 2.49068 1.40972 4.22885 -130.88 -1.60922
50 3.82892 2.56533 0.700161 -3.66601 216.988 2.55468
51 1.18232 1.92584 1.2236 13.1989 267.429 6.56535
52 4.50122 2.87784 3.57416 149.013 -153.013 68.0573
53 2.66265 1.55494 2.31898 126.517 359.108 148.338
54 0.702901 3.65761 4.9009 48.0126 -47.3688 -353.356
55 4.41236 1.08059 2.73134 117.953 -192.162 -88.4748
56 4.85762 2.59731 4.13723 178.777 200.522 -301.205
57 1.43538 1.39425 3.192 124.422 -41.2223 170.7
58 4.35839 1.19625 2.06248 57.2525 32.4368 -35.6056
59 4.8039 0.302793 1.56575 -27.6531 149.858 -104.844
60 2.0611 3.5028 2.54478 -27.3337 -104.788 -60.744
61 2.06378 0.567714 4.1309 -4.25551 36.3208 137.671
62 3.1244 0.848895 3.95218 -103.275 -113.079 -71.8611
63 4.8996 4.1747 3.49754 61.3209 -148.435 -28.0236
ITEM: TIMESTEP
800
ITEM: NUMBER OF ATOMS
63
ITEM: BOX BOUNDS pp pp pp
0 5.2
0 5.2
0 5.2
ITEM: ATOMS id x y z vx vy vz
1 4.6925 0.565392 1.75814 42.6379 -102.475 -215.416
2 1.74051 3.99702 0.975145 -65.035 -61.1977 178.595
3 2.85523 4.66452 4.10273 167.151 258.108 -235.796
4 5.0095 3.48346 1.01745 -219.803 81.5829 80.8117
5 3.13696 4.6073 0.317132 174.952 258.122 321.607
6 2.51677 0.497064 3.83554 136.18 -199.721 77.6761
7 4.48552 4.78891 0.145473 -111.985 59.5845 -273.652
8 4.98671 1.31621 2.15895 -90.9749 -86.1288 109.124
9 1.34936 4.36875 0.0857129 22.3335 -141.749 -23.5851
10 0.663401 2.73721 1.09337 167.602 -203.417 -108.584
11 3.2817 0.638137 0.40586 121.637 -323.042 79.7568
12 2.73882 2.53812 4.57994 -34.2445 64.6174 314.567
13 1.50269 4.08788 3.25928 -261.572 -98.7638 191.323
14 3.26985 1.50195 2.3298 -16.9321 -82.5075 -14.5387
15 2.85573 3.65195 4.82964 139.517 66.3399 89.6689
16 2.12869 4.11659 4.36991 -141.308 39.1645 77.844
17 2.62719 1.80823 1.79368 -30.9625 -338.917 -79.1527
18 5.01889 2.97132 5.09683 66.4581 94.5664 -60.3448
19 1.46794 1.34438 2.56005 -166.601 116.056 266.715
20 1.00416 2.33225 2.46332 34.6536 -27.5619 38.5267
21 3.082 1.65154 0.100768 -73.7866 161.781 -101.097
22 2.6046 4.83629 3.49477 -94.4888 -77.6574 -46.6224
23 2.00591 3.12565 3.39728 17.0635 -21.3027 -191.206
24 1.51766 1.42775 5.05173 -15.5576 250.432 -144.946
25 4.5304 0.881413 0.0275593 34.4947 126.65 -76.0864
26 2.35322 5.1972 1.04946 -48.2728 134.964 146.513
27 5.16321 1.65629 3.72153 -41.2191 -77.9149 -158.314
28 4.52618 0.746118 3.62786 238.416 9.99259 -110.38
29 0.707892 3.45142 3.0502 220.5 107.391 -160.871
30 0.0236425 0.470023 0.898616 -56.5639 118.709 -81.2128
31 0.512447 5.0792 0.0427232 8.66641 -53.6368 -89.094
32 1.92249 4.88184 0.834024 -76.485 -32.5336 176.522
33 4.64865 2.41345 4.47126 -43.6632 -100.768 347.396
34 1.9929 0.0686765 4.21616 -221.728 -23.1999 -132.926
35 1.24981 1.83989 0.100808 -155.382 31.2374 76.2908
36 3.03084 0.941541 2.16401 -3.52735 116.245 -39.9426
37 2.41404 0.375572 1.5854 8.75476 -43.0781 49.881
38 1.21671 0.350227 2.48636 -65.9356 255.566 -127.888
39 3.15656 2.67339 0.817199 -140.34 24.8773 83.0284
40 2.25609 3.49464 5.12966 8.23702 83.1075 138.769
41 3.30075 0.765646 4.05733 -56.2918 -33.5777 44.575
42 1.43143 2.70469 1.80686 -4.34074 -48.999 -93.81
43 2.55336 4.36876 4.69232 -35.6647 10.3291 194.785
44 5.03199 2.89292 0.986553 241.07 -107.59 315.799
45 1.2682 3.59743 3.87958 -92.4189 61.2796 20.9184
46 4.07036 4.80747 1.90466 43.9378 124.201 82.7166
47 1.21939 4.2847 4.62945 -56.5988 -40.8343 81.8655